#!/bin/bash
PSQL="psql -X --username=freecodecamp --dbname=periodic_table --tuples-only -c"

if [[ $1 ]]
then
  if [ "$1" -gt 0 ] 2>/dev/null
  then
    #get atomic number for argument is a number
    ATOMIC_NUMBER_I=$($PSQL "SELECT atomic_number FROM elements WHERE atomic_number=$1")
    #get element symbol
    SYMBOL_I=$($PSQL "SELECT symbol FROM elements WHERE atomic_number=$1")
    #get type
    TYPE_I=$($PSQL "SELECT type FROM properties FULL JOIN types ON properties.type_id=types.type_id WHERE atomic_number=$1")
    #get atomic mass
    ATOMIC_MASS_I=$($PSQL "SELECT atomic_mass FROM properties WHERE atomic_number=$1")
    #get melting point
    MELTING_POINT_I=$($PSQL "SELECT melting_point_celsius FROM properties WHERE atomic_number=$1")
    #get boiling point
    BOILING_POINT_I=$($PSQL "SELECT boiling_point_celsius FROM properties WHERE atomic_number=$1")
    #get element name
    NAME_I=$($PSQL "SELECT name FROM elements WHERE atomic_number=$1")
    #if the atomic number is not found
    if [[ -z $ATOMIC_NUMBER_I ]]
    then
      echo "I could not find that element in the database."
    else
      echo "The element with atomic number $(echo $ATOMIC_NUMBER_I | sed -r 's/^ *| *$//g') is $(echo $NAME_I | sed -r 's/^ *| *$//g') ($(echo $SYMBOL_I | sed -r 's/^ *| *$//g')). It's a $(echo $TYPE_I | sed -r 's/^ *| *$//g'), with a mass of $(echo $ATOMIC_MASS_I | sed -r 's/^ *| *$//g') amu. $(echo $NAME_I | sed -r 's/^ *| *$//g') has a melting point of $(echo $MELTING_POINT_I | sed -r 's/^ *| *$//g') celsius and a boiling point of $(echo $BOILING_POINT_I | sed -r 's/^ *| *$//g') celsius."
    fi
  else
    if [[ ${#1} -lt 3 ]]
    then
      #get atomic number for argument is a symbol
      ATOMIC_NUMBER_S=$($PSQL "SELECT atomic_number FROM elements WHERE symbol='$1'")
      #get symbol for argument is a symbol
      SYMBOL_S=$($PSQL "SELECT symbol FROM elements WHERE symbol='$1'")
      #get type for argument is a symbol
      TYPE_S=$($PSQL "SELECT type FROM elements FULL JOIN properties ON elements.atomic_number=properties.atomic_number FULL JOIN types ON properties.type_id=types.type_id WHERE symbol='$1'")
      #get atomic mass for argument is a symbol
      ATOMIC_MASS_S=$($PSQL "SELECT atomic_mass FROM elements FULL JOIN properties ON elements.atomic_number=properties.atomic_number FULL JOIN types ON properties.type_id=types.type_id WHERE symbol='$1'")
      #get melting point for argument is a symbol
      MELTING_POINT_S=$($PSQL "SELECT melting_point_celsius FROM elements FULL JOIN properties ON elements.atomic_number=properties.atomic_number FULL JOIN types ON properties.type_id=types.type_id WHERE symbol='$1'")
      #get boiling point for argument is a symbol
      BOILING_POINT_S=$($PSQL "SELECT boiling_point_celsius FROM elements FULL JOIN properties ON elements.atomic_number=properties.atomic_number FULL JOIN types ON properties.type_id=types.type_id WHERE symbol='$1'")
      #get name for argment is a symbol
      NAME_S=$($PSQL "SELECT name FROM elements WHERE symbol='$1'")
      #if the symbol is not found
      if [[ -z $ATOMIC_NUMBER_S ]]
      then
        echo "I could not find that element in the database."
      else
        echo "The element with atomic number $(echo $ATOMIC_NUMBER_S | sed -r 's/^ *| *$//g') is $(echo $NAME_S | sed -r 's/^ *| *$//g') ($(echo $SYMBOL_S | sed -r 's/^ *| *$//g')). It's a $(echo $TYPE_S | sed -r 's/^ *| *$//g'), with a mass of $(echo $ATOMIC_MASS_S | sed -r 's/^ *| *$//g') amu. $(echo $NAME_S | sed -r 's/^ *| *$//g') has a melting point of $(echo $MELTING_POINT_S | sed -r 's/^ *| *$//g') celsius and a boiling point of $(echo $BOILING_POINT_S | sed -r 's/^ *| *$//g') celsius."
      fi
    else
      if [[ ${#1} -ge 3 ]]
      then
        #get atomic number for argument is a name
        ATOMIC_NUMBER_N=$($PSQL "SELECT atomic_number FROM elements WHERE name='$1'")
        #get symbol for argument is a name
        SYMBOL_N=$($PSQL "SELECT symbol FROM elements WHERE name='$1'")
        #get type for argument is a name
        TYPE_N=$($PSQL "SELECT type FROM elements FULL JOIN properties ON elements.atomic_number=properties.atomic_number FULL JOIN types ON properties.type_id=types.type_id WHERE name='$1'")
        #get atomic mass for argument is a name
        ATOMIC_MASS_N=$($PSQL "SELECT atomic_mass FROM elements FULL JOIN properties ON elements.atomic_number=properties.atomic_number FULL JOIN types ON properties.type_id=types.type_id WHERE name='$1'")
        #get melting point for argument is a name
        MELTING_POINT_N=$($PSQL "SELECT melting_point_celsius FROM elements FULL JOIN properties ON elements.atomic_number=properties.atomic_number FULL JOIN types ON properties.type_id=types.type_id WHERE name='$1'")
        #get boiling point for argument is a name
        BOILING_POINT_N=$($PSQL "SELECT boiling_point_celsius FROM elements FULL JOIN properties ON elements.atomic_number=properties.atomic_number FULL JOIN types ON properties.type_id=types.type_id WHERE name='$1'")
        #if element name is not found
        if [[ -z $ATOMIC_NUMBER_N ]]
        then
          echo "I could not find that element in the database."
        else
          echo "The element with atomic number $(echo $ATOMIC_NUMBER_N | sed -r 's/^ *| *$//g') is $(echo $1 | sed -r 's/^ *| *$//g') ($(echo $SYMBOL_N | sed -r 's/^ *| *$//g')). It's a $(echo $TYPE_N | sed -r 's/^ *| *$//g'), with a mass of $(echo $ATOMIC_MASS_N | sed -r 's/^ *| *$//g') amu. $(echo $1 | sed -r 's/^ *| *$//g') has a melting point of $(echo $MELTING_POINT_N | sed -r 's/^ *| *$//g') celsius and a boiling point of $(echo $BOILING_POINT_N | sed -r 's/^ *| *$//g') celsius."
        fi
      fi
    fi 
  fi
fi
if [[ -z $1 ]]
then
  echo "Please provide an element as an argument."
fi